file 2098 1254150853                                            
version 2
run Eleven-0-20090826-15:15:27-9449
attr configname Eleven
attr datetime 20090826-15:15:27
attr experiment Eleven
attr inifile omnetpp.ini
attr iterationvars ""
attr iterationvars2 $repetition=0
attr measurement ""
attr network sim
attr processid 9449
attr repetition 0
attr replication #0
attr resultdir results
attr runnumber 0
attr seedset 0
vector 1  sim.host[0].batteryStats  capacity(mW-s)  ETV
1	588 340 0 127 0 15 27 0 10800 109380 794343600
vector 2  sim.host[0].batteryStats  capacity(relative)  ETV
2	928 415 0 127 0 15 27 0 1 10.1277771 6.8102153117297
vector 3  sim.host[0].batteryStats  estimate(mW-s)  ETV
3	1343 340 0 127 0 15 27 0 10800 109380 794343600
vector 4  sim.host[0].batteryStats  estimate(relative)  ETV
4	1683 415 0 127 0 15 27 0 1 10.1277771 6.8102153117297
