file 626 1254150853                                             
version 2
run Nine-0-20090826-15:15:26-9445
attr configname Nine
attr datetime 20090826-15:15:26
attr experiment Nine
attr inifile omnetpp.ini
attr iterationvars ""
attr iterationvars2 $repetition=0
attr measurement ""
attr network sim
attr processid 9445
attr repetition 0
attr replication #0
attr resultdir results
attr runnumber 0
attr seedset 0
vector 1  sim.host[0].batteryStats  capacity(mW-s)  ETV
1	406 220 0 112 0 9.3 16 0 10800 85500 633402000
