file 536 1254150853                                             
version 2
run Five-0-20090826-15:15:25-9435
attr configname Five
attr datetime 20090826-15:15:25
attr experiment Five
attr inifile omnetpp.ini
attr iterationvars ""
attr iterationvars2 $repetition=0
attr measurement ""
attr network sim
attr processid 9435
attr repetition 0
attr replication #0
attr resultdir results
attr runnumber 0
attr seedset 0
vector 1  sim.host[0].batteryStats  capacity(mW-s)  ETV
1	406 130 0 55 0 4.2 10 5700 10800 81780 693939600
