file 772 1254150853                                             
version 2
run Four-0-20090826-15:15:24-9432
attr configname Four
attr datetime 20090826-15:15:24
attr experiment Four
attr inifile omnetpp.ini
attr iterationvars ""
attr iterationvars2 $repetition=0
attr measurement ""
attr network sim
attr processid 9432
attr repetition 0
attr replication #0
attr resultdir results
attr runnumber 0
attr seedset 0
vector 1  sim.host[0].batteryStats  capacity(mW-s)  ETV
1	406 366 0 102 0 15 31 0 8100 87540 468529200
