file 743 1254150853                                             
version 2
run One-0-20090826-15:15:23-9424
attr configname One
attr datetime 20090826-15:15:23
attr experiment One
attr inifile omnetpp.ini
attr iterationvars ""
attr iterationvars2 $repetition=0
attr measurement ""
attr network sim
attr processid 9424
attr repetition 0
attr replication #0
attr resultdir results
attr runnumber 0
attr seedset 0
vector 1  sim.host[0].batteryStats  capacity(mW-s)  ETV
1	403 340 0 127 0 15 27 0 10800 109380 794343600
