file 797 1254150853                                             
version 2
run Two-0-20090826-15:15:23-9430
attr configname Two
attr datetime 20090826-15:15:23
attr experiment Two
attr inifile omnetpp.ini
attr iterationvars ""
attr iterationvars2 $repetition=0
attr measurement ""
attr network sim
attr processid 9430
attr repetition 0
attr replication #0
attr resultdir results
attr runnumber 0
attr seedset 0
vector 1  sim.host[0].batteryStats  capacity(mW-s)  ETV
1	403 394 0 110 0 15 28 0 10800 118133.4 883864840.68
