file 2162 1254150853                                            
version 2
run Twelve-0-20090826-15:15:27-9450
attr configname Twelve
attr datetime 20090826-15:15:27
attr experiment Twelve
attr inifile omnetpp.ini
attr iterationvars ""
attr iterationvars2 $repetition=0
attr measurement ""
attr network sim
attr processid 9450
attr repetition 0
attr replication #0
attr resultdir results
attr runnumber 0
attr seedset 0
vector 1  sim.host[0].batteryStats  capacity(mW-s)  ETV
1	588 365 0 67 0 15 31 0 5400 52380 187059600
vector 2  sim.host[0].batteryStats  capacity(relative)  ETV
2	953 422 0 67 0 15 31 0 0.5 4.8500017 1.6037355821001
vector 3  sim.host[0].batteryStats  estimate(mW-s)  ETV
3	1375 365 0 67 0 15 31 0 5400 52380 187059600
vector 4  sim.host[0].batteryStats  estimate(relative)  ETV
4	1740 422 0 67 0 15 31 0 0.5 4.8500017 1.6037355821001
