file 706 1254150853                                             
version 2
run Ten-0-20090826-15:15:26-9446
attr configname Ten
attr datetime 20090826-15:15:26
attr experiment Ten
attr inifile omnetpp.ini
attr iterationvars ""
attr iterationvars2 $repetition=0
attr measurement ""
attr network sim
attr processid 9446
attr repetition 0
attr replication #0
attr resultdir results
attr runnumber 0
attr seedset 0
vector 1  sim.host[0].batteryStats  capacity(mW-s)  ETV
1	403 303 0 391 0 9.3 20 0 10800 103740 764937000
