file 722 1254150853                                             
version 2
run Three-0-20090826-15:15:24-9431
attr configname Three
attr datetime 20090826-15:15:24
attr experiment Three
attr inifile omnetpp.ini
attr iterationvars ""
attr iterationvars2 $repetition=0
attr measurement ""
attr network sim
attr processid 9431
attr repetition 0
attr replication #0
attr resultdir results
attr runnumber 0
attr seedset 0
vector 1  sim.host[0].batteryStats  capacity(mW-s)  ETV
1	409 313 0 53 0 15 26 0 10800 106380 764283600
