file 4742 1254150853                                            
version 2
run Eight-0-20090826-15:15:26-9440
attr configname Eight
attr datetime 20090826-15:15:26
attr experiment Eight
attr inifile omnetpp.ini
attr iterationvars ""
attr iterationvars2 $repetition=0
attr measurement ""
attr network sim
attr processid 9440
attr repetition 0
attr replication #0
attr resultdir results
attr runnumber 0
attr seedset 0
vector 1  sim.host[0].batteryStats  capacity(mW-s)  ETV
1	409 4333 0 412 0 15 302 0 10800 1008180 7027455600
