file 546 1254150853                                             
version 2
run Six-0-20090826-15:15:25-9436
attr configname Six
attr datetime 20090826-15:15:25
attr experiment Six
attr inifile omnetpp.ini
attr iterationvars ""
attr iterationvars2 $repetition=0
attr measurement ""
attr network sim
attr processid 9436
attr repetition 0
attr replication #0
attr resultdir results
attr runnumber 0
attr seedset 0
vector 1  sim.host[0].batteryStats  capacity(mW-s)  ETV
1	403 143 0 97 0 4.2 11 5700 10800 91470 787979700
