version 2
run Main-0-20110618-16:54:02-9216
attr configname Main
attr datetime 20110618-16:54:02
attr experiment Main
attr inifile omnetpp.ini
attr iterationvars ""
attr iterationvars2 $repetition=0
attr measurement ""
attr network sim
attr processid 9216
attr repetition 0
attr replication #0
attr resultdir results
attr runnumber 0
attr seedset 0

vector 0  sim.channel1_node[0].mobility  Initial_Positions_X  ETV
vector 1  sim.channel1_node[0].mobility  Initial_Positions_Y  ETV
1	0	1	0
1	0	2	142.857
1	0	3	285.714
1	0	4	428.571
1	0	5	571.429
1	0	6	714.286
1	0	7	857.143
1	0	8	0
1	0	9	142.857
1	0	10	285.714
1	0	11	428.571
1	0	12	571.429
1	0	13	714.286
1	0	14	857.143
1	0	15	0
1	0	16	142.857
1	0	17	285.714
1	0	18	428.571
1	0	19	571.429
1	0	20	714.286
1	0	21	857.143
1	0	22	0
1	0	23	142.857
1	0	24	285.714
1	0	25	428.571
1	0	26	571.429
1	0	27	714.286
1	0	28	857.143
1	0	29	0
1	0	30	142.857
1	0	31	285.714
1	0	32	428.571
1	0	33	571.429
1	0	34	714.286
1	0	35	857.143
1	0	36	0
1	0	37	142.857
1	0	38	285.714
1	0	39	428.571
1	0	40	571.429
1	0	41	714.286
1	0	42	857.143
1	0	43	0
1	0	44	142.857
1	0	45	285.714
1	0	46	428.571
1	0	47	571.429
1	0	48	714.286
1	0	49	857.143
0	0	1	0
0	0	2	0
0	0	3	0
0	0	4	0
0	0	5	0
0	0	6	0
0	0	7	0
0	0	8	142.857
0	0	9	142.857
0	0	10	142.857
0	0	11	142.857
0	0	12	142.857
0	0	13	142.857
0	0	14	142.857
0	0	15	285.714
0	0	16	285.714
0	0	17	285.714
0	0	18	285.714
0	0	19	285.714
0	0	20	285.714
0	0	21	285.714
0	0	22	428.571
0	0	23	428.571
0	0	24	428.571
0	0	25	428.571
0	0	26	428.571
0	0	27	428.571
0	0	28	428.571
0	0	29	571.429
0	0	30	571.429
0	0	31	571.429
0	0	32	571.429
0	0	33	571.429
0	0	34	571.429
0	0	35	571.429
0	0	36	714.286
0	0	37	714.286
0	0	38	714.286
0	0	39	714.286
0	0	40	714.286
0	0	41	714.286
0	0	42	714.286
0	0	43	857.143
0	0	44	857.143
0	0	45	857.143
0	0	46	857.143
0	0	47	857.143
0	0	48	857.143
0	0	49	857.143
vector 2  sim.channel1_node[0].mobility  PlaygroundSize  ETV
2	0	1	1000
vector 19  sim.channel1_node[0].appl  Rounds  ETV
vector 17  sim.channel1_node[0].appl  Slots  ETV
vector 18  sim.channel1_node[0].appl  roundTime  ETV
vector 20  sim.channel1_node[0].appl  MsgSizeBits  ETV
vector 15  sim.channel1_node[0].appl  Sources  ETV
vector 16  sim.channel1_node[0].appl  Destinations  ETV
20	0	1	16000
19	0	1	26
18	0	1	1
17	0	1	200
16	0	1	13
16	0	2	38
16	0	3	13
16	0	4	27
16	0	5	5
16	0	6	16
16	0	7	10
16	0	8	31
16	0	9	17
16	0	10	4
16	0	11	29
16	0	12	1
15	0	1	24
15	0	2	7
15	0	3	49
15	0	4	6
15	0	5	31
15	0	6	30
15	0	7	2
15	0	8	4
15	0	9	22
15	0	10	23
15	0	11	28
15	0	12	2
vector 28  sim.channel1_node[0].nic.mac  TX_POWER_mW  ETV
28	0	1	100
vector 29  sim.channel1_node[0].nic.phy  PathLossAlpha  ETV
vector 30  sim.channel1_node[0].nic.phy  PathLossBeta  ETV
vector 31  sim.channel1_node[0].nic.phy  noise_dBm  ETV
31	0	1	-100
30	0	1	24.3892
29	0	1	41.7749
vector 21  sim.channel1_node[0].appl  Table_From  ETV
vector 22  sim.channel1_node[0].appl  Table_To  ETV
vector 23  sim.channel1_node[0].appl  Table_Slot  ETV
vector 24  sim.channel1_node[0].appl  Table_Channel  ETV
vector 25  sim.channel1_node[0].appl  Table_Stream  ETV
vector 26  sim.channel1_node[0].appl  Table_MCS  ETV
vector 27  sim.channel1_node[0].appl  Table_Data  ETV
vector 32  sim.channel1_node[1].appl  "n1:Q length_mean_str5[#msg]"  ETV
vector 33  sim.channel1_node[1].appl  "n1:Q length_max_str5[#msg]"  ETV
vector 34  sim.channel1_node[1].appl  "n1:Q length_mean_str8[#msg]"  ETV
vector 35  sim.channel1_node[1].appl  "n1:Q length_max_str8[#msg]"  ETV
vector 36  sim.channel1_node[1].appl  "n1:Q length_mean_str10[#msg]"  ETV
vector 37  sim.channel1_node[1].appl  "n1:Q length_max_str10[#msg]"  ETV
vector 38  sim.channel1_node[1].appl  "n1:Q length_mean_str12[#msg]"  ETV
vector 39  sim.channel1_node[1].appl  "n1:Q length_max_str12[#msg]"  ETV
vector 40  sim.channel1_node[2].appl  "n2:Q length_mean_str5[#msg]"  ETV
vector 41  sim.channel1_node[2].appl  "n2:Q length_max_str5[#msg]"  ETV
vector 42  sim.channel1_node[2].appl  "n2:Q length_mean_str7[#msg]"  ETV
vector 43  sim.channel1_node[2].appl  "n2:Q length_max_str7[#msg]"  ETV
vector 44  sim.channel1_node[2].appl  "n2:Q length_mean_str8[#msg]"  ETV
vector 45  sim.channel1_node[2].appl  "n2:Q length_max_str8[#msg]"  ETV
vector 46  sim.channel1_node[2].appl  "n2:Q length_mean_str10[#msg]"  ETV
vector 47  sim.channel1_node[2].appl  "n2:Q length_max_str10[#msg]"  ETV
vector 48  sim.channel1_node[2].appl  "n2:Q length_mean_str12[#msg]"  ETV
vector 49  sim.channel1_node[2].appl  "n2:Q length_max_str12[#msg]"  ETV
vector 50  sim.channel1_node[3].appl  "n3:Q length_mean_str5[#msg]"  ETV
vector 51  sim.channel1_node[3].appl  "n3:Q length_max_str5[#msg]"  ETV
vector 52  sim.channel1_node[3].appl  "n3:Q length_mean_str7[#msg]"  ETV
vector 53  sim.channel1_node[3].appl  "n3:Q length_max_str7[#msg]"  ETV
vector 54  sim.channel1_node[3].appl  "n3:Q length_mean_str8[#msg]"  ETV
vector 55  sim.channel1_node[3].appl  "n3:Q length_max_str8[#msg]"  ETV
vector 56  sim.channel1_node[3].appl  "n3:Q length_mean_str10[#msg]"  ETV
vector 57  sim.channel1_node[3].appl  "n3:Q length_max_str10[#msg]"  ETV
vector 58  sim.channel1_node[4].appl  "n4:Q length_mean_str5[#msg]"  ETV
vector 59  sim.channel1_node[4].appl  "n4:Q length_max_str5[#msg]"  ETV
vector 60  sim.channel1_node[4].appl  "n4:Q length_mean_str8[#msg]"  ETV
vector 61  sim.channel1_node[4].appl  "n4:Q length_max_str8[#msg]"  ETV
vector 62  sim.channel1_node[4].appl  "n4:Q length_mean_str10[#msg]"  ETV
vector 63  sim.channel1_node[4].appl  "n4:Q length_max_str10[#msg]"  ETV
vector 64  sim.channel1_node[5].appl  "n5:Q length_mean_str5[#msg]"  ETV
vector 65  sim.channel1_node[5].appl  "n5:Q length_max_str5[#msg]"  ETV
vector 66  sim.channel1_node[6].appl  "n6:Q length_mean_str4[#msg]"  ETV
vector 67  sim.channel1_node[6].appl  "n6:Q length_max_str4[#msg]"  ETV
vector 68  sim.channel1_node[7].appl  "n7:Q length_mean_str2[#msg]"  ETV
vector 69  sim.channel1_node[7].appl  "n7:Q length_max_str2[#msg]"  ETV
vector 70  sim.channel1_node[8].appl  "n8:Q length_mean_str5[#msg]"  ETV
vector 71  sim.channel1_node[8].appl  "n8:Q length_max_str5[#msg]"  ETV
vector 72  sim.channel1_node[8].appl  "n8:Q length_mean_str8[#msg]"  ETV
vector 73  sim.channel1_node[8].appl  "n8:Q length_max_str8[#msg]"  ETV
vector 74  sim.channel1_node[8].appl  "n8:Q length_mean_str10[#msg]"  ETV
vector 75  sim.channel1_node[8].appl  "n8:Q length_max_str10[#msg]"  ETV
vector 76  sim.channel1_node[9].appl  "n9:Q length_mean_str7[#msg]"  ETV
vector 77  sim.channel1_node[9].appl  "n9:Q length_max_str7[#msg]"  ETV
vector 78  sim.channel1_node[9].appl  "n9:Q length_mean_str10[#msg]"  ETV
vector 79  sim.channel1_node[9].appl  "n9:Q length_max_str10[#msg]"  ETV
vector 80  sim.channel1_node[10].appl  "n10:Q length_mean_str1[#msg]"  ETV
vector 81  sim.channel1_node[10].appl  "n10:Q length_max_str1[#msg]"  ETV
vector 82  sim.channel1_node[10].appl  "n10:Q length_mean_str7[#msg]"  ETV
vector 83  sim.channel1_node[10].appl  "n10:Q length_max_str7[#msg]"  ETV
vector 84  sim.channel1_node[10].appl  "n10:Q length_mean_str10[#msg]"  ETV
vector 85  sim.channel1_node[10].appl  "n10:Q length_max_str10[#msg]"  ETV
vector 86  sim.channel1_node[11].appl  "n11:Q length_mean_str1[#msg]"  ETV
vector 87  sim.channel1_node[11].appl  "n11:Q length_max_str1[#msg]"  ETV
vector 88  sim.channel1_node[11].appl  "n11:Q length_mean_str8[#msg]"  ETV
vector 89  sim.channel1_node[11].appl  "n11:Q length_max_str8[#msg]"  ETV
vector 90  sim.channel1_node[12].appl  "n12:Q length_mean_str1[#msg]"  ETV
vector 91  sim.channel1_node[12].appl  "n12:Q length_max_str1[#msg]"  ETV
vector 92  sim.channel1_node[12].appl  "n12:Q length_mean_str5[#msg]"  ETV
vector 93  sim.channel1_node[12].appl  "n12:Q length_max_str5[#msg]"  ETV
vector 94  sim.channel1_node[13].appl  "n13:Q length_mean_str1[#msg]"  ETV
vector 95  sim.channel1_node[13].appl  "n13:Q length_max_str1[#msg]"  ETV
vector 96  sim.channel1_node[13].appl  "n13:Q length_mean_str3[#msg]"  ETV
vector 97  sim.channel1_node[13].appl  "n13:Q length_max_str3[#msg]"  ETV
vector 98  sim.channel1_node[13].appl  "n13:Q length_mean_str4[#msg]"  ETV
vector 99  sim.channel1_node[13].appl  "n13:Q length_max_str4[#msg]"  ETV
vector 100  sim.channel1_node[14].appl  "n14:Q length_mean_str2[#msg]"  ETV
vector 101  sim.channel1_node[14].appl  "n14:Q length_max_str2[#msg]"  ETV
vector 102  sim.channel1_node[14].appl  "n14:Q length_mean_str3[#msg]"  ETV
vector 103  sim.channel1_node[14].appl  "n14:Q length_max_str3[#msg]"  ETV
vector 104  sim.channel1_node[15].appl  "n15:Q length_mean_str5[#msg]"  ETV
vector 105  sim.channel1_node[15].appl  "n15:Q length_max_str5[#msg]"  ETV
vector 106  sim.channel1_node[15].appl  "n15:Q length_mean_str6[#msg]"  ETV
vector 107  sim.channel1_node[15].appl  "n15:Q length_max_str6[#msg]"  ETV
vector 108  sim.channel1_node[15].appl  "n15:Q length_mean_str8[#msg]"  ETV
vector 109  sim.channel1_node[15].appl  "n15:Q length_max_str8[#msg]"  ETV
vector 110  sim.channel1_node[15].appl  "n15:Q length_mean_str10[#msg]"  ETV
vector 111  sim.channel1_node[15].appl  "n15:Q length_max_str10[#msg]"  ETV
vector 112  sim.channel1_node[16].appl  "n16:Q length_mean_str6[#msg]"  ETV
vector 113  sim.channel1_node[16].appl  "n16:Q length_max_str6[#msg]"  ETV
vector 114  sim.channel1_node[16].appl  "n16:Q length_mean_str10[#msg]"  ETV
vector 115  sim.channel1_node[16].appl  "n16:Q length_max_str10[#msg]"  ETV
vector 116  sim.channel1_node[17].appl  "n17:Q length_mean_str1[#msg]"  ETV
vector 117  sim.channel1_node[17].appl  "n17:Q length_max_str1[#msg]"  ETV
vector 118  sim.channel1_node[17].appl  "n17:Q length_mean_str9[#msg]"  ETV
vector 119  sim.channel1_node[17].appl  "n17:Q length_max_str9[#msg]"  ETV
vector 120  sim.channel1_node[17].appl  "n17:Q length_mean_str10[#msg]"  ETV
vector 121  sim.channel1_node[17].appl  "n17:Q length_max_str10[#msg]"  ETV
vector 122  sim.channel1_node[18].appl  "n18:Q length_mean_str1[#msg]"  ETV
vector 123  sim.channel1_node[18].appl  "n18:Q length_max_str1[#msg]"  ETV
vector 124  sim.channel1_node[18].appl  "n18:Q length_mean_str8[#msg]"  ETV
vector 125  sim.channel1_node[18].appl  "n18:Q length_max_str8[#msg]"  ETV
vector 126  sim.channel1_node[19].appl  "n19:Q length_mean_str1[#msg]"  ETV
vector 127  sim.channel1_node[19].appl  "n19:Q length_max_str1[#msg]"  ETV
vector 128  sim.channel1_node[19].appl  "n19:Q length_mean_str5[#msg]"  ETV
vector 129  sim.channel1_node[19].appl  "n19:Q length_max_str5[#msg]"  ETV
vector 130  sim.channel1_node[20].appl  "n20:Q length_mean_str1[#msg]"  ETV
vector 131  sim.channel1_node[20].appl  "n20:Q length_max_str1[#msg]"  ETV
vector 132  sim.channel1_node[20].appl  "n20:Q length_mean_str3[#msg]"  ETV
vector 133  sim.channel1_node[20].appl  "n20:Q length_max_str3[#msg]"  ETV
vector 134  sim.channel1_node[20].appl  "n20:Q length_mean_str4[#msg]"  ETV
vector 135  sim.channel1_node[20].appl  "n20:Q length_max_str4[#msg]"  ETV
vector 136  sim.channel1_node[21].appl  "n21:Q length_mean_str2[#msg]"  ETV
vector 137  sim.channel1_node[21].appl  "n21:Q length_max_str2[#msg]"  ETV
vector 138  sim.channel1_node[21].appl  "n21:Q length_mean_str3[#msg]"  ETV
vector 139  sim.channel1_node[21].appl  "n21:Q length_max_str3[#msg]"  ETV
vector 140  sim.channel1_node[22].appl  "n22:Q length_mean_str5[#msg]"  ETV
vector 141  sim.channel1_node[22].appl  "n22:Q length_max_str5[#msg]"  ETV
vector 142  sim.channel1_node[22].appl  "n22:Q length_mean_str6[#msg]"  ETV
vector 143  sim.channel1_node[22].appl  "n22:Q length_max_str6[#msg]"  ETV
vector 144  sim.channel1_node[22].appl  "n22:Q length_mean_str8[#msg]"  ETV
vector 145  sim.channel1_node[22].appl  "n22:Q length_max_str8[#msg]"  ETV
vector 146  sim.channel1_node[22].appl  "n22:Q length_mean_str9[#msg]"  ETV
vector 147  sim.channel1_node[22].appl  "n22:Q length_max_str9[#msg]"  ETV
vector 148  sim.channel1_node[22].appl  "n22:Q length_mean_str10[#msg]"  ETV
vector 149  sim.channel1_node[22].appl  "n22:Q length_max_str10[#msg]"  ETV
vector 150  sim.channel1_node[23].appl  "n23:Q length_mean_str10[#msg]"  ETV
vector 151  sim.channel1_node[23].appl  "n23:Q length_max_str10[#msg]"  ETV
vector 152  sim.channel1_node[24].appl  "n24:Q length_mean_str1[#msg]"  ETV
vector 153  sim.channel1_node[24].appl  "n24:Q length_max_str1[#msg]"  ETV
vector 154  sim.channel1_node[24].appl  "n24:Q length_mean_str9[#msg]"  ETV
vector 155  sim.channel1_node[24].appl  "n24:Q length_max_str9[#msg]"  ETV
vector 156  sim.channel1_node[24].appl  "n24:Q length_mean_str10[#msg]"  ETV
vector 157  sim.channel1_node[24].appl  "n24:Q length_max_str10[#msg]"  ETV
vector 158  sim.channel1_node[25].appl  "n25:Q length_mean_str1[#msg]"  ETV
vector 159  sim.channel1_node[25].appl  "n25:Q length_max_str1[#msg]"  ETV
vector 160  sim.channel1_node[25].appl  "n25:Q length_mean_str8[#msg]"  ETV
vector 161  sim.channel1_node[25].appl  "n25:Q length_max_str8[#msg]"  ETV
vector 162  sim.channel1_node[26].appl  "n26:Q length_mean_str1[#msg]"  ETV
vector 163  sim.channel1_node[26].appl  "n26:Q length_max_str1[#msg]"  ETV
vector 164  sim.channel1_node[26].appl  "n26:Q length_mean_str5[#msg]"  ETV
vector 165  sim.channel1_node[26].appl  "n26:Q length_max_str5[#msg]"  ETV
vector 166  sim.channel1_node[27].appl  "n27:Q length_mean_str1[#msg]"  ETV
vector 167  sim.channel1_node[27].appl  "n27:Q length_max_str1[#msg]"  ETV
vector 168  sim.channel1_node[27].appl  "n27:Q length_mean_str3[#msg]"  ETV
vector 169  sim.channel1_node[27].appl  "n27:Q length_max_str3[#msg]"  ETV
vector 170  sim.channel1_node[27].appl  "n27:Q length_mean_str4[#msg]"  ETV
vector 171  sim.channel1_node[27].appl  "n27:Q length_max_str4[#msg]"  ETV
vector 172  sim.channel1_node[28].appl  "n28:Q length_mean_str2[#msg]"  ETV
vector 173  sim.channel1_node[28].appl  "n28:Q length_max_str2[#msg]"  ETV
vector 174  sim.channel1_node[28].appl  "n28:Q length_mean_str3[#msg]"  ETV
vector 175  sim.channel1_node[28].appl  "n28:Q length_max_str3[#msg]"  ETV
vector 176  sim.channel1_node[28].appl  "n28:Q length_mean_str11[#msg]"  ETV
vector 177  sim.channel1_node[28].appl  "n28:Q length_max_str11[#msg]"  ETV
vector 178  sim.channel1_node[29].appl  "n29:Q length_mean_str5[#msg]"  ETV
vector 179  sim.channel1_node[29].appl  "n29:Q length_max_str5[#msg]"  ETV
vector 180  sim.channel1_node[29].appl  "n29:Q length_mean_str6[#msg]"  ETV
vector 181  sim.channel1_node[29].appl  "n29:Q length_max_str6[#msg]"  ETV
vector 182  sim.channel1_node[29].appl  "n29:Q length_mean_str8[#msg]"  ETV
vector 183  sim.channel1_node[29].appl  "n29:Q length_max_str8[#msg]"  ETV
vector 184  sim.channel1_node[29].appl  "n29:Q length_mean_str9[#msg]"  ETV
vector 185  sim.channel1_node[29].appl  "n29:Q length_max_str9[#msg]"  ETV
vector 186  sim.channel1_node[29].appl  "n29:Q length_mean_str11[#msg]"  ETV
vector 187  sim.channel1_node[29].appl  "n29:Q length_max_str11[#msg]"  ETV
vector 188  sim.channel1_node[30].appl  "n30:Q length_mean_str5[#msg]"  ETV
vector 189  sim.channel1_node[30].appl  "n30:Q length_max_str5[#msg]"  ETV
vector 190  sim.channel1_node[30].appl  "n30:Q length_mean_str6[#msg]"  ETV
vector 191  sim.channel1_node[30].appl  "n30:Q length_max_str6[#msg]"  ETV
vector 192  sim.channel1_node[30].appl  "n30:Q length_mean_str8[#msg]"  ETV
vector 193  sim.channel1_node[30].appl  "n30:Q length_max_str8[#msg]"  ETV
vector 194  sim.channel1_node[30].appl  "n30:Q length_mean_str9[#msg]"  ETV
vector 195  sim.channel1_node[30].appl  "n30:Q length_max_str9[#msg]"  ETV
vector 196  sim.channel1_node[30].appl  "n30:Q length_mean_str11[#msg]"  ETV
vector 197  sim.channel1_node[30].appl  "n30:Q length_max_str11[#msg]"  ETV
vector 198  sim.channel1_node[31].appl  "n31:Q length_mean_str1[#msg]"  ETV
vector 199  sim.channel1_node[31].appl  "n31:Q length_max_str1[#msg]"  ETV
vector 200  sim.channel1_node[31].appl  "n31:Q length_mean_str5[#msg]"  ETV
vector 201  sim.channel1_node[31].appl  "n31:Q length_max_str5[#msg]"  ETV
vector 202  sim.channel1_node[31].appl  "n31:Q length_mean_str8[#msg]"  ETV
vector 203  sim.channel1_node[31].appl  "n31:Q length_max_str8[#msg]"  ETV
vector 204  sim.channel1_node[31].appl  "n31:Q length_mean_str9[#msg]"  ETV
vector 205  sim.channel1_node[31].appl  "n31:Q length_max_str9[#msg]"  ETV
vector 206  sim.channel1_node[32].appl  "n32:Q length_mean_str5[#msg]"  ETV
vector 207  sim.channel1_node[32].appl  "n32:Q length_max_str5[#msg]"  ETV
vector 208  sim.channel1_node[32].appl  "n32:Q length_mean_str8[#msg]"  ETV
vector 209  sim.channel1_node[32].appl  "n32:Q length_max_str8[#msg]"  ETV
vector 210  sim.channel1_node[33].appl  "n33:Q length_mean_str5[#msg]"  ETV
vector 211  sim.channel1_node[33].appl  "n33:Q length_max_str5[#msg]"  ETV
vector 212  sim.channel1_node[34].appl  "n34:Q length_mean_str1[#msg]"  ETV
vector 213  sim.channel1_node[34].appl  "n34:Q length_max_str1[#msg]"  ETV
vector 214  sim.channel1_node[34].appl  "n34:Q length_mean_str3[#msg]"  ETV
vector 215  sim.channel1_node[34].appl  "n34:Q length_max_str3[#msg]"  ETV
vector 216  sim.channel1_node[35].appl  "n35:Q length_mean_str2[#msg]"  ETV
vector 217  sim.channel1_node[35].appl  "n35:Q length_max_str2[#msg]"  ETV
vector 218  sim.channel1_node[35].appl  "n35:Q length_mean_str3[#msg]"  ETV
vector 219  sim.channel1_node[35].appl  "n35:Q length_max_str3[#msg]"  ETV
vector 220  sim.channel1_node[35].appl  "n35:Q length_mean_str11[#msg]"  ETV
vector 221  sim.channel1_node[35].appl  "n35:Q length_max_str11[#msg]"  ETV
vector 222  sim.channel1_node[36].appl  "n36:Q length_mean_str11[#msg]"  ETV
vector 223  sim.channel1_node[36].appl  "n36:Q length_max_str11[#msg]"  ETV
vector 224  sim.channel1_node[37].appl  "n37:Q length_mean_str2[#msg]"  ETV
vector 225  sim.channel1_node[37].appl  "n37:Q length_max_str2[#msg]"  ETV
vector 226  sim.channel1_node[37].appl  "n37:Q length_mean_str11[#msg]"  ETV
vector 227  sim.channel1_node[37].appl  "n37:Q length_max_str11[#msg]"  ETV
vector 228  sim.channel1_node[38].appl  "n38:Q length_mean_str1[#msg]"  ETV
vector 229  sim.channel1_node[38].appl  "n38:Q length_max_str1[#msg]"  ETV
vector 230  sim.channel1_node[38].appl  "n38:Q length_mean_str2[#msg]"  ETV
vector 231  sim.channel1_node[38].appl  "n38:Q length_max_str2[#msg]"  ETV
vector 232  sim.channel1_node[38].appl  "n38:Q length_mean_str11[#msg]"  ETV
vector 233  sim.channel1_node[38].appl  "n38:Q length_max_str11[#msg]"  ETV
vector 234  sim.channel1_node[39].appl  "n39:Q length_mean_str1[#msg]"  ETV
vector 235  sim.channel1_node[39].appl  "n39:Q length_max_str1[#msg]"  ETV
vector 236  sim.channel1_node[39].appl  "n39:Q length_mean_str2[#msg]"  ETV
vector 237  sim.channel1_node[39].appl  "n39:Q length_max_str2[#msg]"  ETV
vector 238  sim.channel1_node[39].appl  "n39:Q length_mean_str11[#msg]"  ETV
vector 239  sim.channel1_node[39].appl  "n39:Q length_max_str11[#msg]"  ETV
vector 240  sim.channel1_node[40].appl  "n40:Q length_mean_str1[#msg]"  ETV
vector 241  sim.channel1_node[40].appl  "n40:Q length_max_str1[#msg]"  ETV
vector 242  sim.channel1_node[40].appl  "n40:Q length_mean_str2[#msg]"  ETV
vector 243  sim.channel1_node[40].appl  "n40:Q length_max_str2[#msg]"  ETV
vector 244  sim.channel1_node[40].appl  "n40:Q length_mean_str11[#msg]"  ETV
vector 245  sim.channel1_node[40].appl  "n40:Q length_max_str11[#msg]"  ETV
vector 246  sim.channel1_node[41].appl  "n41:Q length_mean_str1[#msg]"  ETV
vector 247  sim.channel1_node[41].appl  "n41:Q length_max_str1[#msg]"  ETV
vector 248  sim.channel1_node[41].appl  "n41:Q length_mean_str2[#msg]"  ETV
vector 249  sim.channel1_node[41].appl  "n41:Q length_max_str2[#msg]"  ETV
vector 250  sim.channel1_node[41].appl  "n41:Q length_mean_str3[#msg]"  ETV
vector 251  sim.channel1_node[41].appl  "n41:Q length_max_str3[#msg]"  ETV
vector 252  sim.channel1_node[41].appl  "n41:Q length_mean_str11[#msg]"  ETV
vector 253  sim.channel1_node[41].appl  "n41:Q length_max_str11[#msg]"  ETV
vector 254  sim.channel1_node[42].appl  "n42:Q length_mean_str2[#msg]"  ETV
vector 255  sim.channel1_node[42].appl  "n42:Q length_max_str2[#msg]"  ETV
vector 256  sim.channel1_node[42].appl  "n42:Q length_mean_str3[#msg]"  ETV
vector 257  sim.channel1_node[42].appl  "n42:Q length_max_str3[#msg]"  ETV
vector 258  sim.channel1_node[42].appl  "n42:Q length_mean_str11[#msg]"  ETV
vector 259  sim.channel1_node[42].appl  "n42:Q length_max_str11[#msg]"  ETV
vector 260  sim.channel1_node[43].appl  "n43:Q length_mean_str11[#msg]"  ETV
vector 261  sim.channel1_node[43].appl  "n43:Q length_max_str11[#msg]"  ETV
vector 262  sim.channel1_node[44].appl  "n44:Q length_mean_str2[#msg]"  ETV
vector 263  sim.channel1_node[44].appl  "n44:Q length_max_str2[#msg]"  ETV
vector 264  sim.channel1_node[44].appl  "n44:Q length_mean_str11[#msg]"  ETV
vector 265  sim.channel1_node[44].appl  "n44:Q length_max_str11[#msg]"  ETV
vector 266  sim.channel1_node[45].appl  "n45:Q length_mean_str2[#msg]"  ETV
vector 267  sim.channel1_node[45].appl  "n45:Q length_max_str2[#msg]"  ETV
vector 268  sim.channel1_node[45].appl  "n45:Q length_mean_str11[#msg]"  ETV
vector 269  sim.channel1_node[45].appl  "n45:Q length_max_str11[#msg]"  ETV
vector 270  sim.channel1_node[46].appl  "n46:Q length_mean_str2[#msg]"  ETV
vector 271  sim.channel1_node[46].appl  "n46:Q length_max_str2[#msg]"  ETV
vector 272  sim.channel1_node[46].appl  "n46:Q length_mean_str11[#msg]"  ETV
vector 273  sim.channel1_node[46].appl  "n46:Q length_max_str11[#msg]"  ETV
vector 274  sim.channel1_node[47].appl  "n47:Q length_mean_str2[#msg]"  ETV
vector 275  sim.channel1_node[47].appl  "n47:Q length_max_str2[#msg]"  ETV
vector 276  sim.channel1_node[47].appl  "n47:Q length_mean_str11[#msg]"  ETV
vector 277  sim.channel1_node[47].appl  "n47:Q length_max_str11[#msg]"  ETV
vector 278  sim.channel1_node[48].appl  "n48:Q length_mean_str2[#msg]"  ETV
vector 279  sim.channel1_node[48].appl  "n48:Q length_max_str2[#msg]"  ETV
vector 280  sim.channel1_node[48].appl  "n48:Q length_mean_str3[#msg]"  ETV
vector 281  sim.channel1_node[48].appl  "n48:Q length_max_str3[#msg]"  ETV
vector 282  sim.channel1_node[48].appl  "n48:Q length_mean_str11[#msg]"  ETV
vector 283  sim.channel1_node[48].appl  "n48:Q length_max_str11[#msg]"  ETV
vector 284  sim.channel1_node[49].appl  "n49:Q length_mean_str2[#msg]"  ETV
vector 285  sim.channel1_node[49].appl  "n49:Q length_max_str2[#msg]"  ETV
vector 286  sim.channel1_node[49].appl  "n49:Q length_mean_str3[#msg]"  ETV
vector 287  sim.channel1_node[49].appl  "n49:Q length_max_str3[#msg]"  ETV
vector 288  sim.channel1_node[49].appl  "n49:Q length_mean_str11[#msg]"  ETV
vector 289  sim.channel1_node[49].appl  "n49:Q length_max_str11[#msg]"  ETV
vector 3  sim.channel1_node[0].appl  "Throughput str1(24->13)[Mbps]"  ETV
vector 4  sim.channel1_node[0].appl  "Throughput str2(7->38)[Mbps]"  ETV
vector 5  sim.channel1_node[0].appl  "Throughput str3(49->13)[Mbps]"  ETV
vector 6  sim.channel1_node[0].appl  "Throughput str4(6->27)[Mbps]"  ETV
vector 7  sim.channel1_node[0].appl  "Throughput str5(31->5)[Mbps]"  ETV
vector 8  sim.channel1_node[0].appl  "Throughput str6(30->16)[Mbps]"  ETV
vector 9  sim.channel1_node[0].appl  "Throughput str7(2->10)[Mbps]"  ETV
vector 10  sim.channel1_node[0].appl  "Throughput str8(4->31)[Mbps]"  ETV
vector 11  sim.channel1_node[0].appl  "Throughput str9(22->17)[Mbps]"  ETV
vector 12  sim.channel1_node[0].appl  "Throughput str10(23->4)[Mbps]"  ETV
vector 13  sim.channel1_node[0].appl  "Throughput str11(28->29)[Mbps]"  ETV
vector 14  sim.channel1_node[0].appl  "Throughput str12(2->1)[Mbps]"  ETV
3	745632	1	0.10624
3	2035608	2	0.5312
3	3536195	3	0.563072
3	5208755	4	0.669312
3	6944430	5	0.659168
3	8583406	6	0.520576
3	10366875	7	0.711808
3	12049440	8	0.605568
3	13324407	9	0.467456
3	14304423	10	0.393568
3	15108315	11	0.446208
3	16132958	12	0.31872
3	17661124	13	0.701184
3	19320703	14	0.711808
3	20997535	15	0.69104
3	22742892	16	0.733056
3	24438937	17	0.754304
3	26182196	18	0.701184
3	28022014	19	0.733056
3	29862379	20	0.722912
3	31701366	21	0.711808
3	33516744	22	0.733056
3	35365286	23	0.722432
3	37261637	24	0.722432
3	39132676	25	0.701664
4	745632	1	0.191232
4	2035608	2	0.467456
4	3536195	3	0.509952
4	5208755	4	0.552448
4	6944430	5	0.627296
4	8583406	6	0.616192
4	10366875	7	0.658688
4	12049440	8	0.605568
4	13324407	9	0.37232
4	14304423	10	0.350592
4	15108315	11	0.276224
4	16132958	12	0.244352
4	17661124	13	0.552448
4	19320703	14	0.5848
4	20997535	15	0.605568
4	22742892	16	0.669312
4	24438937	17	0.658688
4	26182196	18	0.648064
4	28022014	19	0.711808
4	29862379	20	0.69104
4	31701366	21	0.658688
4	33516744	22	0.669312
4	35365286	23	0.69056
4	37261637	24	0.701184
4	39132676	25	0.701664
5	745632	1	0.084992
5	2035608	2	0.276224
5	3536195	3	0.361216
5	5208755	4	0.37232
5	6944430	5	0.435584
5	8583406	6	0.350592
5	10366875	7	0.382464
5	12049440	8	0.435584
5	13324407	9	0.351072
5	14304423	10	0.2656
5	15108315	11	0.21248
5	16132958	12	0.308096
5	17661124	13	0.254976
5	19320703	14	0.382464
5	20997535	15	0.254976
5	22742892	16	0.350592
5	24438937	17	0.350592
5	26182196	18	0.393088
5	28022014	19	0.446688
5	29862379	20	0.47808
5	31701366	21	0.467456
5	33516744	22	0.488704
5	35365286	23	0.467456
5	37261637	24	0.489184
5	39132676	25	0.53168
6	745632	1	0.308096
6	2035608	2	0.435584
6	3536195	3	0.552448
6	5208755	4	0.616672
6	6944430	5	0.648064
6	8583406	6	0.499328
6	10366875	7	0.605568
6	12049440	8	0.563072
6	13324407	9	0.351072
6	14304423	10	0.244352
6	15108315	11	0.21248
6	16132958	12	0.446208
6	17661124	13	0.563072
6	19320703	14	0.63792
6	20997535	15	0.679936
6	22742892	16	0.69056
6	24438937	17	0.594944
6	26182196	18	0.626816
6	28022014	19	0.680416
6	29862379	20	0.669312
6	31701366	21	0.669312
6	33516744	22	0.679936
6	35365286	23	0.679936
6	37261637	24	0.669792
6	39132676	25	0.69056
7	745632	1	0.21248
7	2035608	2	0.339968
7	3536195	3	0.520576
7	5208755	4	0.573696
7	6944430	5	0.627296
7	8583406	6	0.605568
7	10366875	7	0.594944
7	12049440	8	0.594944
7	13324407	9	0.414816
7	14304423	10	0.339968
7	15108315	11	0.169984
7	16132958	12	0.31872
7	17661124	13	0.499328
7	19320703	14	0.509952
7	20997535	15	0.542304
7	22742892	16	0.5312
7	24438937	17	0.541824
7	26182196	18	0.552448
7	28022014	19	0.616192
7	29862379	20	0.626816
7	31701366	21	0.63744
7	33516744	22	0.648064
7	35365286	23	0.626816
7	37261637	24	0.669792
7	39132676	25	0.63744
8	745632	1	0.223104
8	2035608	2	0.499328
8	3536195	3	0.552448
8	5208755	4	0.605568
8	6944430	5	0.659168
8	8583406	6	0.541824
8	10366875	7	0.616192
8	12049440	8	0.658688
8	13324407	9	0.42544
8	14304423	10	0.350592
8	15108315	11	0.286848
8	16132958	12	0.286848
8	17661124	13	0.58432
8	19320703	14	0.63792
8	20997535	15	0.658688
8	22742892	16	0.679936
8	24438937	17	0.605568
8	26182196	18	0.626816
8	28022014	19	0.648544
8	29862379	20	0.669312
8	31701366	21	0.679936
8	33516744	22	0.669312
8	35365286	23	0.679936
8	37261637	24	0.680416
8	39132676	25	0.679936
9	745632	1	0.201856
9	2035608	2	0.5312
9	3536195	3	0.5312
9	5208755	4	0.616192
9	6944430	5	0.594944
9	8583406	6	0.509952
9	10366875	7	0.616192
9	12049440	8	0.573696
9	13324407	9	0.393568
9	14304423	10	0.361216
9	15108315	11	0.329344
9	16132958	12	0.297472
9	17661124	13	0.605568
9	19320703	14	0.595424
9	20997535	15	0.605568
9	22742892	16	0.63744
9	24438937	17	0.626816
9	26182196	18	0.626816
9	28022014	19	0.606048
9	29862379	20	0.616192
9	31701366	21	0.605568
9	33516744	22	0.594944
9	35365286	23	0.594944
9	37261637	24	0.594944
9	39132676	25	0.595424
10	745632	1	0.15936
10	2035608	2	0.42496
10	3536195	3	0.5312
10	5208755	4	0.552448
10	6944430	5	0.627296
10	8583406	6	0.63744
10	10366875	7	0.648064
10	12049440	8	0.658688
10	13324407	9	0.521056
10	14304423	10	0.339968
10	15108315	11	0.21248
10	16132958	12	0.42496
10	17661124	13	0.541824
10	19320703	14	0.563552
10	20997535	15	0.626816
10	22742892	16	0.616192
10	24438937	17	0.648064
10	26182196	18	0.63744
10	28022014	19	0.58432
10	29862379	20	0.626816
10	31701366	21	0.648064
10	33516744	22	0.658688
10	35365286	23	0.648064
10	37261637	24	0.679936
10	39132676	25	0.659168
11	745632	1	0.308096
11	2035608	2	0.446208
11	3536195	3	0.488704
11	5208755	4	0.563072
11	6944430	5	0.595424
11	8583406	6	0.594944
11	10366875	7	0.605568
11	12049440	8	0.626816
11	13324407	9	0.47856
11	14304423	10	0.244352
11	15108315	11	0.223104
11	16132958	12	0.414336
11	17661124	13	0.488704
11	19320703	14	0.510432
11	20997535	15	0.573696
11	22742892	16	0.563072
11	24438937	17	0.605568
11	26182196	18	0.573696
11	28022014	19	0.605568
11	29862379	20	0.574176
11	31701366	21	0.594944
11	33516744	22	0.605568
11	35365286	23	0.605568
11	37261637	24	0.605568
11	39132676	25	0.63792
12	745632	1	0.31872
12	2035608	2	0.403712
12	3536195	3	0.456832
12	5208755	4	0.5312
12	6944430	5	0.574176
12	8583406	6	0.594944
12	10366875	7	0.58432
12	12049440	8	0.594944
12	13324407	9	0.573696
12	14304423	10	0.339968
12	15108315	11	0.254976
12	16132958	12	0.403712
12	17661124	13	0.47808
12	19320703	14	0.542784
12	20997535	15	0.563072
12	22742892	16	0.58432
12	24438937	17	0.573696
12	26182196	18	0.573696
12	28022014	19	0.616672
12	29862379	20	0.626816
12	31701366	21	0.626816
12	33516744	22	0.63744
12	35365286	23	0.648064
12	37261637	24	0.701664
12	39132676	25	0.679936
13	745632	1	0.382464
13	2035608	2	0.435584
13	3536195	3	0.456832
13	5208755	4	0.542784
13	6944430	5	0.520576
13	8583406	6	0.499328
13	10366875	7	0.563072
13	12049440	8	0.552448
13	13324407	9	0.489184
13	14304423	10	0.361216
13	15108315	11	0.308096
13	16132958	12	0.393088
13	17661124	13	0.467456
13	19320703	14	0.542304
13	20997535	15	0.499328
13	22742892	16	0.499328
13	24438937	17	0.499328
13	26182196	18	0.47808
13	28022014	19	0.499808
13	29862379	20	0.488704
13	31701366	21	0.488704
13	33516744	22	0.446208
13	35365286	23	0.488704
13	37261637	24	0.499808
13	39132676	25	0.488704
14	745632	1	1.338624
14	2035608	2	1.126144
14	3536195	3	1.104896
14	5208755	4	1.16912
14	6944430	5	0.733056
14	8583406	6	1.402368
14	10366875	7	1.147392
14	12049440	8	0.626816
14	13324407	9	0.616672
14	14304423	10	0.58432
14	15108315	11	0.541824
14	16132958	12	0.998656
14	17661124	13	0.807424
14	19320703	14	0.892896
14	20997535	15	1.019904