file 652 1254150853                                             
version 2
run Four-0-20090826-15:46:29-14785
attr configname Four
attr datetime 20090826-15:46:29
attr experiment Four
attr inifile omnetpp.ini
attr iterationvars ""
attr iterationvars2 $repetition=0
attr measurement ""
attr network sim
attr processid 14785
attr repetition 0
attr replication #0
attr resultdir results
attr runnumber 0
attr seedset 0
vector 1  sim.host[0].batteryStats  capacity(mW-s)  ETV
1	408 244 0 96 0 5.6 18 1155 10800 106125 774084375
