file 790 1254150853                                             
version 2
run Three-0-20090826-15:46:29-14782
attr configname Three
attr datetime 20090826-15:46:29
attr experiment Three
attr inifile omnetpp.ini
attr iterationvars ""
attr iterationvars2 $repetition=0
attr measurement ""
attr network sim
attr processid 14782
attr repetition 0
attr replication #0
attr resultdir results
attr runnumber 0
attr seedset 0
vector 1  sim.host[0].batteryStats  capacity(mW-s)  ETV
1	411 379 0 117 0 15 30 0 10800 107160 774847800
