file 605 1254150853                                             
version 2
run One-0-20090826-15:46:29-14788
attr configname One
attr datetime 20090826-15:46:29
attr experiment One
attr inifile omnetpp.ini
attr iterationvars ""
attr iterationvars2 $repetition=0
attr measurement ""
attr network sim
attr processid 14788
attr repetition 0
attr replication #0
attr resultdir results
attr runnumber 0
attr seedset 0
vector 1  sim.host[0].batteryStats  capacity(mW-s)  ETV
1	405 200 0 71 0 4.8 15 3000 10800 102960 789890400
