file 778 1254150853                                             
version 2
run Two-0-20090826-15:46:30-14789
attr configname Two
attr datetime 20090826-15:46:30
attr experiment Two
attr inifile omnetpp.ini
attr iterationvars ""
attr iterationvars2 $repetition=0
attr measurement ""
attr network sim
attr processid 14789
attr repetition 0
attr replication #0
attr resultdir results
attr runnumber 0
attr seedset 0
vector 1  sim.host[0].batteryStats  capacity(mW-s)  ETV
1	405 373 0 110 0 15 30 0 10800 110340 803854800
